/*--------------------------------*- C++ -*----------------------------------*| =========                 |                                                 |
| \      /  F ield         | OpenFOAM: The Open Source CFD Toolbox           |
|  \    /   O peration     | Version:  4.0                                   |
|   \  /    A nd           | Web:      www.OpenFOAM.org                      |
|    \/     M anipulation  |                                                 |
\*---------------------------------------------------------------------------*/
FoamFile
{
    version     2.0;
    format      ascii;
    class       volVectorField;
    location    "0";
    object      Q;
}
// * * * * * * * * * * * * * * * * * * * * * * * * * * * * * * * * * * * * * //

dimensions      [0 2 -1 0 0 0 0];

internalField   uniform (0 0 0);


boundaryField
{

    outlet
    {
        type            zeroGradient;

    }

    frontAndBack
    {
        type            fixedValue;
        value           uniform (0 0 0);
    }

    lowerWall
    {
        type            empty;
    }
    
    upperWall
    {
        type            empty;
    }
    
    inlet
    {
        type            fixedValue;
        value           nonuniform List<vector>

180
(
( 0.00000629950 0 0 )
( 0.00000638100 0 0 )
( 0.00000621800 0 0 )
( 0.00000629950 0 0 )
( 0.00000620800 0 0 )
( 0.00000619800 0 0 )
( 0.00000638550 0 0 )
( 0.00000657300 0 0 )
( 0.00000629400 0 0 )
( 0.00000601500 0 0 )
( 0.00000591100 0 0 )
( 0.00000596300 0 0 )
( 0.00000576900 0 0 )
( 0.00000584000 0 0 )
( 0.00000667300 0 0 )
( 0.00000622100 0 0 )
( 0.00000629900 0 0 )
( 0.00000592500 0 0 )
( 0.00000597050 0 0 )
( 0.00000601600 0 0 )
( 0.00000567600 0 0 )
( 0.00000584600 0 0 )
( 0.00000572400 0 0 )
( 0.00000570000 0 0 )
( 0.00000562500 0 0 )
( 0.00000552600 0 0 )
( 0.00000533600 0 0 )
( 0.00000543100 0 0 )
( 0.00000576200 0 0 )
( 0.00000554900 0 0 )
( 0.00000593550 0 0 )
( 0.00000610900 0 0 )
( 0.00000588800 0 0 )
( 0.00000599850 0 0 )
( 0.00000562800 0 0 )
( 0.00000536800 0 0 )
( 0.00000509800 0 0 )
( 0.00000482800 0 0 )
( 0.00000451750 0 0 )
( 0.00000420700 0 0 )
( 0.00000384400 0 0 )
( 0.00000402550 0 0 )
( 0.00000367450 0 0 )
( 0.00000350500 0 0 )
( 0.00000441800 0 0 )
( 0.00000396150 0 0 )
( 0.00000498500 0 0 )
( 0.00000470150 0 0 )
( 0.00000545600 0 0 )
( 0.00000592700 0 0 )
( 0.00000620400 0 0 )
( 0.00000606550 0 0 )
( 0.00000644650 0 0 )
( 0.00000668900 0 0 )
( 0.00000606300 0 0 )
( 0.00000637600 0 0 )
( 0.00000587250 0 0 )
( 0.00000568200 0 0 )
( 0.00000547950 0 0 )
( 0.00000527700 0 0 )
( 0.00000542050 0 0 )
( 0.00000556400 0 0 )
( 0.00000572300 0 0 )
( 0.00000564350 0 0 )
( 0.00000522000 0 0 )
( 0.00000547150 0 0 )
( 0.00000565100 0 0 )
( 0.00000543550 0 0 )
( 0.00000568500 0 0 )
( 0.00000566800 0 0 )
( 0.00000645500 0 0 )
( 0.00000607000 0 0 )
( 0.00000639150 0 0 )
( 0.00000632800 0 0 )
( 0.00000695500 0 0 )
( 0.00000664150 0 0 )
( 0.00000817700 0 0 )
( 0.00000756600 0 0 )
( 0.00000836400 0 0 )
( 0.00000827050 0 0 )
( 0.00000738000 0 0 )
( 0.00000787200 0 0 )
( 0.00000720100 0 0 )
( 0.00000729050 0 0 )
( 0.00000712300 0 0 )
( 0.00000716200 0 0 )
( 0.00000734100 0 0 )
( 0.00000755900 0 0 )
( 0.00000670600 0 0 )
( 0.00000713250 0 0 )
( 0.00000663400 0 0 )
( 0.00000656200 0 0 )
( 0.00000667950 0 0 )
( 0.00000679700 0 0 )
( 0.00000644600 0 0 )
( 0.00000662150 0 0 )
( 0.00000658000 0 0 )
( 0.00000651300 0 0 )
( 0.00000648700 0 0 )
( 0.00000639400 0 0 )
( 0.00000669500 0 0 )
( 0.00000699600 0 0 )
( 0.00000686850 0 0 )
( 0.00000674100 0 0 )
( 0.00000615750 0 0 )
( 0.00000557400 0 0 )
( 0.00000556700 0 0 )
( 0.00000556000 0 0 )
( 0.00000558850 0 0 )
( 0.00000561700 0 0 )
( 0.00000566000 0 0 )
( 0.00000570300 0 0 )
( 0.00000615800 0 0 )
( 0.00000593050 0 0 )
( 0.00000557200 0 0 )
( 0.00000586500 0 0 )
( 0.00000582600 0 0 )
( 0.00000569900 0 0 )
( 0.00000650600 0 0 )
( 0.00000616600 0 0 )
( 0.00000701890 0 0 )
( 0.00000753180 0 0 )
( 0.00000798460 0 0 )
( 0.00000843740 0 0 )
( 0.00000877740 0 0 )
( 0.00000911740 0 0 )
( 0.00000969410 0 0 )
( 0.00000940575 0 0 )
( 0.00000978645 0 0 )
( 0.00000987880 0 0 )
( 0.00000944040 0 0 )
( 0.00000965960 0 0 )
( 0.00000926415 0 0 )
( 0.00000908790 0 0 )
( 0.00000866770 0 0 )
( 0.00000887780 0 0 )
( 0.00000840390 0 0 )
( 0.00000814010 0 0 )
( 0.00000676500 0 0 )
( 0.00000745255 0 0 )
( 0.00000689270 0 0 )
( 0.00000682885 0 0 )
( 0.00000617420 0 0 )
( 0.00000653345 0 0 )
( 0.00000518585 0 0 )
( 0.00000419750 0 0 )
( 0.00000434320 0 0 )
( 0.00000427035 0 0 )
( 0.00000422200 0 0 )
( 0.00000428260 0 0 )
( 0.00000401800 0 0 )
( 0.00000412000 0 0 )
( 0.00000423435 0 0 )
( 0.00000445070 0 0 )
( 0.00000417850 0 0 )
( 0.00000431460 0 0 )
( 0.00000382100 0 0 )
( 0.00000399975 0 0 )
( 0.00000417600 0 0 )
( 0.00000399850 0 0 )
( 0.00000409800 0 0 )
( 0.00000413700 0 0 )
( 0.00000497000 0 0 )
( 0.00000453400 0 0 )
( 0.00000504600 0 0 )
( 0.00000500800 0 0 )
( 0.00000574280 0 0 )
( 0.00000539440 0 0 )
( 0.00000581380 0 0 )
( 0.00000588480 0 0 )
( 0.00000654350 0 0 )
( 0.00000621415 0 0 )
( 0.00000669130 0 0 )
( 0.00000661740 0 0 )
( 0.00000634190 0 0 )
( 0.00000651660 0 0 )
( 0.00000594290 0 0 )
( 0.00000614240 0 0 )
( 0.00000569185 0 0 )
( 0.00000544080 0 0 )
)
;

}
}
// ************************************************************************* //
