/*--------------------------------*- C++ -*----------------------------------*| =========                 |                                                 |
| \      /  F ield         | OpenFOAM: The Open Source CFD Toolbox           |
|  \    /   O peration     | Version:  2012                                  |
|   \  /    A nd           | Website:  www.openfoam.com                      |
|    \/     M anipulation  |                                                 |
\*---------------------------------------------------------------------------*/
FoamFile
{
    version     2.0;
    format      ascii;
    class       volScalarField;
    location    "constant";
    object      aperture;
}
// * * * * * * * * * * * * * * * * * * * * * * * * * * * * * * * * * * * * * //

dimensions      [0 1 0 0 0 0 0];

internalField   nonuniform List<scalar> 
64080
(
0.0006471869477449047
0.0006682713099592373
0.0006371810857225509
0.0006545299720236686
0.0006261292794740303
0.0006341404533727811
0.0006172692201499014
0.0006096959053622617
0.0006189346382195924
0.0005973902092991453
0.0006301797880920448
0.0005943066837317554
0.0006282654970756081
0.0005961106973385931
0.0006130281134937542
0.0006038720317843525
0.0006005908289125575
0.0006082328203734386
0.0005970015338593031
0.0006094700732965154
0.0005947153356134123
0.0006068185599447732
0.0005896484151584484
0.0006048671521814596
0.0006002344224220907
0.0006135255255831691
0.0006353850322682446
0.0006367338884760026
0.0006462565944404996
0.0006446753069296516
0.0006203452884418146
0.0006282022905009862
0.0006001675849598948
0.0006040516571676528
0.000591618079011177
0.0005759617981406969
0.0005850167364602236
0.0005635414863931624
0.0005759238603892177
0.000565632816210388
0.0005744694081183432
0.0005784918785272848
0.0005836922360315581
0.0006048206425746219
0.0005844616554556213
0.000613773563200526
0.0005742633515529258
0.0006004314991768574
0.0005648297170493097
0.000593935422451019
0.0005597969450124918
0.0005981200822695595
0.0005618427972228797
0.0005969032095989481
0.0005707615124497042
0.0005883760458724524
0.0005840689537015122
0.0005882832232241947
0.0005987457779434583
0.0005960901475082183
0.0006017226460249836
0.0005925612456410257
0.0005914697729993426
0.0005768382371203157
0.0005689765173859303
0.0005509863402761341
0.0005435927867166339
0.0005246202579171598
0.0005174669379697568
0.0004941437319763314
0.000489497626800789
0.00046190454803155825
0.0004660445841104536
0.00044472784280341886
0.0004439470436844182
0.00043832247761998685
0.00042342883304405
0.0004288114757606838
0.0004042071405627877
0.0004108970827955293
0.0003864082099460881
0.0003930103091992111
0.0003705348973464826
0.0003795860851413544
0.000371096224157791
0.0003802996557028271
0.00040064446578566733
0.00040115251081393824
0.0004385696766732413
0.00043264600233267595
0.0004747847414884945
0.00047742324605654177
0.0005097492273451677
0.000525222114974359
0.0005532455050230112
0.0005760034262511506
0.000592564599965812
0.0006143332224036817
0.0006100066929598948
0.0006206054573543721
0.000621912770921762
0.0006190585674372124
0.0006399515951084813
0.0006260668088547009
0.0006456053760236686
0.0006283435605811965
0.0006298139945220251
0.0006207022490861276
0.0006098625667087442
0.0006136570382984878
0.000596509544
0.0006144828916554899
0.0005837488211623931
0.0006138439163918475
0.0005666402301775148
0.0006011558102984878
0.0005554437157580539
0.0005907753889204472
0.000563014739755424
0.0006020100540249835
0.0005766556435844839
0.0006174071513714662
0.0005821609998895465
0.0006145803452544379
0.0005775184200131492
0.0005998925855700198
0.0005607422524049967
0.0005819635162840238
0.0005478369407468771
0.0005738478061669954
0.0005594108682393163
0.0005929367988244576
0.0005813287072452334
0.0006226453406653518
0.0005920934046390533
0.0006381011886022355
0.0005995778632241946
0.0006449158666429981
0.000620177399184747
0.0006557834799842209
0.0006439490932439186
0.0006667087753714662
0.0006512972338514136
0.0006720025643471401
0.0006548922765811965
0.000684234904052597
0.0006790806527889547
0.0007228840588165681
0.0007213163577015122
0.0007805033558632479
0.0007709154219197896
0.0008341814792057858
0.000822264251063774
0.000878553901425378
0.0008498829551742275
0.0008933134961814596
0.000842761507600263
0.0008733409764681132
0.0008102397543721237
0.0008393999803944774
0.0007688567252176201
0.0007990681091755425
0.0007420681914109139
0.000758923201601578
0.0007233326261512164
0.0007194653462169626
0.0007090964751084813
0.0006887617341196582
0.000701808947965812
0.0006684734706035503
0.0007129916840341881
0.0006780544766522025
0.0007301486476160421
0.0007050005140328731
0.0007118266640262985
0.0006989037801262328
0.0006806164649809336
0.0006811119761630507
0.0006653546349690993
0.0006730445525969757
0.0006622519873635766
0.0006740553595555556
0.0006772377922998028
0.0006988217524444444
0.0006915535016436555
0.0007226371651413544
0.000688418374469428
0.0007249401499276792
0.0006727258754740303
0.0007097798677790927
0.0006649179701117686
0.0006918850818461538
0.0006624860347928995
0.00067260712
0.0006554255311637081
0.00066293253530572
0.0006518650820618014
0.0006676999672031559
0.0006584611361183432
0.0006640270277107166
0.0006728760491019067
0.0006510070875239974
0.0006664300978698226
0.0006336007895147928
0.0006544587393293886
0.0006241075821775148
0.0006181992879868508
0.0005837719316028929
0.0005611562403602893
0.0005237421032583826
0.0005324941708086785
0.0004940760592583827
0.0005297587609151874
0.0004875654588928337
0.0005278997081104537
0.00048178556627744907
0.0005302100667639711
0.00048319583295989486
0.0005398286139145299
0.00048636309436686395
0.0005393193173622617
0.0004780542433846154
0.0005440343381801447
0.0004828608404733728
0.0005661370115765944
0.0005050722479447732
0.0005591113739250493
0.0004981691588060486
0.000540724712539119
0.0004947723354556214
0.0005419899744589086
0.0005078249556975675
0.0005538523343405655
0.0005218606336278765
0.0005728367689493754
0.0005442550618698225
0.0006046624393951348
0.0005788755535647601
0.0006466510282419461
0.00061700760591453
0.0006869980101669955
0.0006413756435739645
0.0007292660384667981
0.0006694294025641026
0.0007764875758895464
0.0007196345360973045
0.0008208731717948719
0.0007743679836055227
0.0008634038960026298
0.0008308969050177515
0.000906066592731098
0.0008881857317975016
0.0009406287194792899
0.0009302354546903354
0.0009599412901143985
0.000948993748262985
0.0009684407522393162
0.0009518633120315582
0.0009627339786508877
0.00094775692887048
0.00094738642782906
0.0009414332597659434
0.0009304047777304405
0.0009348216625009862
0.0009135632668954636
0.0009230113096936227
0.0009026065388639053
0.0009075712634372125
0.0008894196395108482
0.0008883081448994083
0.0008636288659119002
0.0008618276241761999
0.0008368178595318869
0.0008351860719710716
0.0007979267750927022
0.0007967119444549639
0.0007409393147955293
0.0007444035573648916
0.0006974537302774491
0.0007055640158974359
0.0006875140935174228
0.0006921894904273505
0.0006802245221091388
0.0006785710312741619
0.000654768500557528
0.0006531789891886917
0.0006058063575568705
0.0006119471550401052
0.0005274539759158449
0.000545290436105194
0.0004570531305877712
0.0004798671427928994
0.00043262669162919134
0.0004431128372097305
0.0004262650545535832
0.0004135144914345825
0.0004115359454148587
0.00037221566452333996
0.0003942618993083498
0.00033363160960420775
0.00038368552908086786
0.0003191509965023012
0.0003803670360683761
0.00032139231532938857
0.00039171018731097964
0.0003367531719105851
0.00040984883806443137
0.0003571578781117686
0.0004102961934464168
0.0003588666504904668
0.0003959150332675872
0.00034415595809335965
0.0003777016526127548
0.0003232140219355687
0.00036168848098882314
0.00030309341375410915
0.00036371716094411573
0.0003038909918369494
0.00037926026774490467
0.0003197605677317554
0.00038686998216436554
0.00033214239477712034
0.00039135580015516107
0.0003453501009677844
0.0004114091161420118
0.0003612758145877712
0.00044298963684944115
0.00037507039005391194
0.0004569470976147272
0.0003746407938330046
0.0004592164599026956
0.00037058326635108486
0.0004814472811597633
0.00039725230369230775
0.0005225984003550296
0.0004542914215542407
0.0005555337079237344
0.0005080620569335963
0.0005758367757475345
0.0005527676421512163
0.000601226039042735
0.0005909333830059172
0.0006303358331676529
0.0006145856316423406
0.0006505546081762
0.0006315335257672584
0.0006579620301538462
0.0006399518340460224
0.0006534615799105852
0.000637065700470743
0.0006365534051860619
0.0006224898317080868
0.0006147765221012492
0.0006027369790637738
0.0005947906232767916
0.0005818009870111769
0.000578152391287311
0.0005689506410940171
0.0005597419852991453
0.0005637103936331362
0.000700861412923077
0.0007446076308849442
0.0006741383222143327
0.0006958237196870481
0.000646823121062459
0.0006641475162813939
0.0006168881313504274
0.0006388158979776464
0.000596409132331361
0.0006162032767705457
0.0005835834209099277
0.0005982249299460881
0.0005849473871505588
0.0005949272709875082
0.0006013166384220908
0.0006054997725180802
0.0006144059308717948
0.0006191034668849442
0.0006216503152662722
0.0006335190400815254
0.0006227482057199211
0.0006423203833188692
0.0006236918597475346
0.0006459274539276792
0.0006283124093622617
0.0006443993635213676
0.000637860262174885
0.000638595742940171
0.0006420045987376726
0.0006383300134332676
0.0006357814105325445
0.000643185713025641
0.0006146257073267587
0.0006319278139013807
0.0005800747023563445
0.0006039757562629849
0.0005673768817251808
0.0005965027014569363
0.0005782816746324786
0.000613830825601578
0.0005970967062222223
0.000630149946140697
0.0006261079148639054
0.0006475353705851413
0.0006375072303747535
0.0006557388943405655
0.0006256003805496384
0.0006498619987297831
0.0006232138482472058
0.0006525950939040106
0.0006332159781801446
0.0006649589720210389
0.0006297362073425379
0.0006603030657146614
0.000611187740573307
0.0006391913208389217
0.0006009382563523998
0.0006218735744220907
0.0005998830918238002
0.0006099401750138067
0.000591020465009862
0.0005969957028139381
0.0005728182034687706
0.0005793322069480605
0.0005474870636291914
0.0005584826268507561
0.0005264475433898751
0.000549124520418146
0.0004983193285391191
0.0005298809071032216
0.00046869077026166994
0.0005097020757264957
0.0004593682904299803
0.0005101241284602236
0.00046208987551347796
0.0005154705328021038
0.00045661918871005915
0.0005061485611808021
0.000437606736799474
0.000483001606069691
0.00041760853090335305
0.00045987251296778436
0.00040246498335568703
0.0004395395532938856
0.0004003457032478633
0.0004313870338461539
0.00041538909543984223
0.0004436239361656805
0.00044405966996975677
0.00047259935992373435
0.0004930635315818541
0.0005212503552583826
0.0005481502556896778
0.0005781561610046023
0.0006030913230690335
0.000634196489617357
0.0006427591492123603
0.0006776278742222223
0.0006477124605470086
0.0006912869365522683
0.000640773927113741
0.000687160555776463
0.0006390916992320842
0.0006792592585588429
0.0006377079219434583
0.000674047689288626
0.0006378687492859961
0.0006816816949349112
0.0006428619144930967
0.000697683067879027
0.0006543459047915845
0.0007161438772807365
0.0006625894871558186
0.0007301501460013149
0.0006555753214385273
0.0007302469393030901
0.0006469253510216963
0.0007246930525338593
0.0006555351265272847
0.0007247089964391848
0.0006650792320368179
0.0007199979217462196
0.0006536724388980933
0.0006990153142669297
0.0006316808176594346
0.0006727959933096647
0.0006125252184089415
0.0006527665286522026
0.0006066145956607495
0.0006462334034477318
0.0006298906037001973
0.0006699316945062459
0.0006654544850650888
0.0007096072306824458
0.000685729505428008
0.0007351874971913215
0.0006935582065930309
0.0007456336550479948
0.0006984689294069691
0.0007482435676660092
0.0007019729069690994
0.000749938822905983
0.0007105284941827745
0.0007672225662827089
0.0007328304148954635
0.0008011840390821827
0.0007791535154030243
0.0008489747082051282
0.0008430624564260356
0.0009097491392636423
0.0008985306456147271
0.0009633697217882972
0.000936583076418146
0.00099546703234714
0.0009385219489809337
0.000984622547008547
0.0009040749263011177
0.000934454951792242
0.0008575388641814595
0.0008654296478763971
0.0008087398148980934
0.0007988300055542406
0.0007622962418987509
0.000752385727497699
0.0007152790818777121
0.0007109616277817226
0.000679530625967127
0.0006818042247495069
0.0006547433744115714
0.0006611089948270876
0.0006573881480552269
0.0006513909792794215
0.0006788630201341224
0.0006519638209677844
0.0006808457478948061
0.0006577212143642342
0.0006791535673267588
0.0006747302367915845
0.0006754771132702171
0.000672832643339908
0.0006734864371176857
0.0006607788274635109
0.0007005306007994741
0.0006822505682892834
0.0007307161135647601
0.0007156011411702828
0.0007413925333675215
0.0007370961113925049
0.0007334283140170941
0.000743088790190664
0.0007066095505351743
0.000709024117062459
0.0006705355678238002
0.0006562700547455622
0.0006571952024404997
0.000638237695773833
0.0006657747432268245
0.000646033678522025
0.0006596958834556213
0.0006452584206337936
0.0006376632031452992
0.0006327190263510848
0.0006149956678395793
0.000610508166487837
0.0006054473079421434
0.00059834170573833
0.000569091430661407
0.0005743235672952006
0.0005144016435923735
0.0005334058279026957
0.00048624345011965815
0.0005089353071926364
0.0004748299980565418
0.0004914236235687048
0.000461331268086785
0.0004665675202524655
0.0004564643562235372
0.0004500498106166995
0.0004530467256936226
0.00044028568063116374
0.00044311216987771206
0.00043497033619723863
0.00044765870889940833
0.0004380852453359632
0.0004689822019539777
0.00045735537839579224
0.0004654361723760684
0.0004608623581117686
0.0004665897114056542
0.0004562403603366207
0.00048126870822879687
0.00046242041224720584
0.0004947890775200526
0.0004727464189901381
0.0005165298459750164
0.0004896551611623932
0.0005546860765811967
0.0005320568803234715
0.000591410824817883
0.0005700586700118343
0.0006021976036844182
0.0005698806503037475
0.0006170718042314267
0.0005722054165943458
0.0006602530071768574
0.0005978976502669296
0.0007119718399894807
0.0006335775979066404
0.0007751584139723866
0.0006963519880052597
0.0008429226228402368
0.0007706283934148587
0.0008948900073688363
0.0008349890326206443
0.0009241479962892834
0.0008853889225167654
0.0009342306142564104
0.0009153107330151217
0.0009341261588770545
0.0009218048300276135
0.0009304145845996057
0.0009144477759184747
0.0009272326767047995
0.0009076842573333334
0.0009168136430479947
0.000895003301428008
0.0008978996289309665
0.000873681562869165
0.000876373672486522
0.0008536965133254438
0.0008498516948796844
0.0008277185480499671
0.0008216026863142671
0.0007960121196186721
0.0007854381863773833
0.0007640421477606838
0.0007423745885312296
0.0007348741291623932
0.0007097673887337279
0.0007101471754345825
0.0006919502984510191
0.0006868667283497699
0.0006726576077843524
0.0006625090500197239
0.0006492743543721237
0.000642987105772518
0.0006159138688862591
0.0006175777197817226
0.0005598706825141355
0.000570934416433925
0.0004982476188954635
0.0005119489817251808
0.00044813099883760684
0.00044769810087310984
0.0004005650153267587
0.00038750343296515454
0.0003492213640341881
0.0003424857554030243
0.00030679057363050625
0.00031379228704273503
0.0002957942387850099
0.000313943707634451
0.00030489528576988824
0.00033105470561998687
0.0003198361611597633
0.0003405816102485207
0.00033343386634319527
0.0003383659854516765
0.0003293905708980934
0.0003220234949165023
0.00031105899207363577
0.0002966295196134122
0.00028829961089546355
0.00027266050543589744
0.00026632752995923737
0.000251222657913478
0.00026206152534148587
0.0002384321474942801
0.00027181118757659434
0.00023535186131150561
0.00028559838242735045
0.0002463352533183432
0.00030427944196975676
0.0002676747145167653
0.00031715133006706114
0.0002800832597133465
0.00032138290387902696
0.00028281199860355033
0.00031461489896646947
0.0002765280107403024
0.0003072939164838922
0.0002688202079474031
0.0003337221179986851
0.0002899573420144642
0.0003939261835713347
0.0003407982065641026
0.0004568626899066404
0.00040206385966863904
0.0005194985100723209
0.00047624668896778435
0.0005728396079921104
0.000547179131581854
0.0006063867955055884
0.0006057379301827745
0.0006235172257357002
0.0006265326498566732
0.0006206255789506903
0.0006000695416831033
0.0006110342970046022
0.0005754490493859304
0.0005943022740144642
0.0005520742713425378
0.0005775020624299803
0.0005390338083550297
0.0005616245521525313
0.0005342687149585799
0.0005576055252439184
0.0005441788574174886
0.0005683852486153847
0.00057378213443524
0.0007706285223642341
0.0007791810987744904
0.0007185918550111769
0.0007426112075003288
0.0006881998452149902
0.0007187581516476003
0.0006676938699881657
0.0007032610871242604
0.000642383696557528
0.0006749427653964498
0.0006164465172544379
0.0006382035691939515
0.0006066097458593032
0.0006197466586140698
0.0006115032660512821
0.0006190509530992768
0.0006246463333254438
0.00063077492313215
0.0006439154819513478
0.0006526134797001972
0.0006579770637633137
0.0006698042043892177
0.0006641646837475346
0.0006785141941117686
0.0006631512238527285
0.0006847631244733728
0.0006562923872268244
0.0006911739087416173
0.0006579818840026299
0.0007006662327600264
0.0006691829222274819
0.0007134115560920448
0.000665567132210388
0.0007154745235792243
0.0006471793093464826
0.0007096154560368179
0.0006462805362472059
0.0007165375955003288
0.0006661135629638397
0.0007349649860591717
0.0006766177895779093
0.0007365164491623933
0.0006793776166522025
0.0007216062239631822
0.0006747531138014464
0.0006941979931913215
0.0006631674052544379
0.0006651318190374753
0.0006658458900670612
0.0006629350689783038
0.0006811612710690335
0.0006819606488941486
0.0006812020307797502
0.0006923299559026956
0.0006645907257462196
0.0006872368718474688
0.000647970115913215
0.0006789301448994083
0.0006328639130230113
0.0006682585439552926
0.0006172290341012492
0.0006516265652333991
0.0005985459923681789
0.0006304265478316897
0.000578596120886259
0.0006083589235003288
0.0005715141252439185
0.0005942661256305063
0.0005578662940118344
0.0005833088664536489
0.0005482548797869823
0.0005856548742958581
0.0005554685419986851
0.000595582726332676
0.0005610026664589087
0.0005981315370282709
0.0005467002668270875
0.0005786650504904669
0.0005176049524838923
0.0005424946873241288
0.0004940401839000658
0.0005201254172570677
0.00047648320726101254
0.0005126286284891519
0.00046936852144641687
0.0005139093662248521
0.00048052912167258384
0.0005257242948270874
0.0005076711622721894
0.0005494437527784352
0.0005534499963576595
0.0005901246870295858
0.0006071770011992111
0.0006355143206311638
0.0006579397465693623
0.0006746452955082183
0.0006997462490703486
0.0007093615268507561
0.0007202614382038133
0.0007346730349875083
0.0007220807568231427
0.00074536893356476
0.0007142697508244576
0.0007437707577251808
0.0007086922889704142
0.0007413651570703485
0.0007179918647915844
0.0007466332030138067
0.0007358313720394477
0.0007570821776410257
0.0007550251672426037
0.0007707064556160421
0.0007701932751978961
0.0007824348250361605
0.0007749096732360289
0.0007892965125180802
0.0007721556791978961
0.000789002560365549
0.0007652493005154504
0.0007767054033872453
0.0007507462865509534
0.0007570800567153189
0.0007264158943405655
0.0007358778604207758
0.0007003452658803419
0.0007142261819671269
0.0006794525485259699
0.0006923467777304405
0.0006719424154030243
0.0006836411782590401
0.0006970805318369494
0.0007113975846074951
0.0007408504783537147
0.0007592007332123603
0.0007735709434082841
0.000800843822314267
0.000794039508783695
0.0008385606903353059
0.0008025769140591716
0.0008608526065956608
0.0008050654031689677
0.0008668254907245233
0.0008253033858172256
0.0008843924586535175
0.0008619028062827088
0.0009148298140907298
0.0009064046443445102
0.0009512951483261014
0.0009594560882892834
0.0009916394279211045
0.0010073665026666667
0.0010297986396660091
0.0010331147503800132
0.0010489831562077582
0.0010112019830532545
0.0010181899638711375
0.0009530188684970416
0.0009598770972149902
0.0008798739296278765
0.0009015078184957266
0.0008111472202314266
0.0008458643172833662
0.0007640134415936884
0.0007964621764260355
0.0007229568142905984
0.0007506378296831032
0.0006948188651939514
0.0007180864560052598
0.0006736132409861933
0.000691965245149244
0.0006576921123523998
0.0006765352295568705
0.0006485279839421433
0.0006687490905299146
0.0006525117708244577
0.0006652398380486523
0.0006736208986088101
0.0006758823519053255
0.000674534084052597
0.0006807411052149902
0.0006634625169230769
0.0006816803715371467
0.0006809928607232085
0.0006965960762840238
0.0007087476318527286
0.0007099124751347798
0.0007325540989822486
0.0007274972414306378
0.0007472813413596319
0.0007457664284917817
0.0007197302248441815
0.0007388866103458251
0.0006708733665877712
0.000714598265843524
0.0006480606988560158
0.0006864762690256411
0.0006448217209598948
0.000661983561669954
0.000640016606401052
0.0006437189729257067
0.0006306217146929652
0.0006310972705115056
0.0006092841434976988
0.0006113282669191322
0.0005952258925943459
0.0005961248274950691
0.0005769080053675213
0.0005765625176252466
0.0005456307591190007
0.0005507038304378699
0.0005222967901564761
0.0005259640572781066
0.0004985530809967127
0.0004958582573885602
0.0004677973512268245
0.00046503718414727155
0.0004444282420749507
0.000439627314174885
0.00043336965251019075
0.000432337136731098
0.00043587199832215655
0.00044586906603550296
0.00044099464844444446
0.00045667251626035503
0.00045478037591058516
0.0004614811648021039
0.0004581937763103222
0.0004575421165864563
0.0004508395710769231
0.00045049718453385934
0.0004521532013122946
0.00045037583553977646
0.000463145949669954
0.0004658565277054569
0.0004788194424825773
0.000483914726748192
0.0005213620354819197
0.00052243007582643
0.0005558978563050625
0.0005486770908954636
0.0005485276877896122
0.0005378161868323472
0.0005460041325654175
0.0005384757665483235
0.000564630866295858
0.0005607734315502959
0.0005926543144983564
0.0005890007725601578
0.0006493165897619987
0.0006334346432294543
0.0007195661106298489
0.0006890677923550296
0.000786272731637081
0.00074813949287048
0.0008449788900512822
0.0008028992667218934
0.0008820023810466799
0.0008347050459907955
0.0008888316241104537
0.0008353088957685732
0.0008758243855226826
0.0008143942373675214
0.0008652287638921763
0.000799666720678501
0.0008548442950190665
0.0007961121062669298
0.0008371329931676529
0.000788383934224852
0.0008207486332938856
0.0007778830933149244
0.000797546104731098
0.0007595450428744247
0.0007657332194319526
0.0007307645002866535
0.0007385522748402368
0.000708675704712689
0.0007217806776962525
0.0007024689409993425
0.0007053442509585799
0.0006949244958921763
0.0006807342033477975
0.0006733714195713347
0.0006540351362472059
0.0006470575633872453
0.0006353035735752794
0.000626078468749507
0.0006119869265667324
0.0005992723022774491
0.000569920805357002
0.0005572055559894807
0.0005151643945483235
0.000508043426469428
0.000449816809078238
0.00045442639860881
0.00038870935818014466
0.00040403941365417485
0.00034795574444444446
0.0003653694219329389
0.00032502153042209073
0.0003403073265851414
0.00032791307998685074
0.00033787588031032216
0.0003438044455095332
0.0003432443992820513
0.0003446998840473373
0.00033208314955161084
0.0003296708267324129
0.000307276549809336
0.0003052373344483892
0.000278938499513478
0.0002771203366311637
0.0002524333135910585
0.00025583618936936227
0.0002377710442593031
0.00024045062537567392
0.000233966319182643
0.00023149615006627221
0.00024112765819592373
0.00022976407000131494
0.0002548867446664037
0.00023883174666219592
0.00026276124524470744
0.0002562113113588429
0.0002696533670558843
0.00026772299817488495
0.00028029112543589746
0.000270441835913215
0.0002845022692281394
0.0002601746266769231
0.00026589532176988823
0.00024587407686522023
0.00023887881660407626
0.0002613757410892834
0.000248284362382906
0.00030732027084023666
0.0002937314598974359
0.00036905875287836953
0.00035740865496120976
0.00045000630218540433
0.0004404369366048652
0.0005296558696936226
0.00052000907321762
0.0005992019331334649
0.0005867462901065089
0.0006251327923918475
0.0006192994598711374
0.0005945802463405654
0.0006040950120131493
0.0005668165460670612
0.0005850408066692966
0.0005419949511610782
0.0005639730292123603
0.0005326723335463511
0.0005583082941512164
0.0005361176715555555
0.0005670477247652861
0.0005532462259513478
0.0005846727564234057
0.0005895277474030243
0.0006155293856147272
0.0007907514873504273
0.0008052584546114398
0.0007592056359631822
0.0007681624704983564
0.0007402205359605523
0.0007527442763024326
0.0007297073521499014
0.0007472352106798159
0.0006969776415831691
0.0007083070035424064
0.0006494518329072978
0.0006500905969730441
0.0006263907873556872
0.0006265665618566733
0.0006251663214174885
0.0006298852597527942
0.0006360740782695595
0.0006407165266561473
0.0006567520588717948
0.0006565124882209073
0.0006757102931150559
0.0006757514400525969
0.000690386225443787
0.0006998070722656148
0.0007047945756554899
0.00072318711130572
0.000720739202330046
0.0007449389989506904
0.0007370648981538462
0.0007673152754188034
0.0007539799838579882
0.0007910695084996713
0.0007602487774411572
0.00079994698939119
0.000758111549115056
0.0007927321842735043
0.0007638658677107167
0.0007884637863957923
0.0007751798516370809
0.0007869550477107166
0.0007664785533307035
0.0007665814877659434
0.0007384299996817884
0.0007298768289704143
0.000697802299408284
0.0006855870368757396
0.000657692835894806
0.0006406617903957923
0.000649336710122288
0.0006250520355003288
0.000667573040331361
0.000638092887358317
0.0006807014267823801
0.0006471668647521368
0.0006804557115029586
0.0006452633636134123
0.0006792118920920448
0.0006499078829375411
0.0006795170614806049
0.0006677479312767916
0.0006724318203865878
0.0006796578198211703
0.0006562362841183433
0.0006756576025956608
0.0006378965879342538
0.0006662317774411571
0.0006231979235450362
0.0006571835272189349
0.0006154482967679159
0.000653055007721236
0.0006254539985641026
0.0006663662674714004
0.0006348996980644313
0.0006725207241656805
0.0006289286883208416
0.0006528225949480605
0.0006032334232189349
0.0006208493825325444
0.0005668677521314925
0.0005915171464089416
0.0005465552123971073
0.0005737051174069691
0.0005411263322130178
0.0005621105761525313
0.0005427514528731098
0.0005557218344799474
0.0005507923513083499
0.0005553670876712689
0.0005694529396607495
0.0005673344847836949
0.0006058492722761341
0.0006003065358053913
0.000647105871166338
0.0006418152811545037
0.0006851223186009204
0.0006891016157580539
0.0007218060001446418
0.0007367652498067061
0.0007502896224746877
0.0007669552080394477
0.000762665806366864
0.0007738835984063116
0.0007599932097304405
0.0007628832036107824
0.0007561438158763972
0.000753146922921762
0.0007605538242472058
0.0007601218904746877
0.0007699671769125576
0.0007748453823852729
0.0007822762307113742
0.0007900506459119001
0.0007919722124418145
0.0007989249882708745
0.0007960231527337278
0.0007950170647495069
0.0007936733752899409
0.0007862862391715976
0.0007812630531729126
0.0007791924798527285
0.0007628528350164366
0.0007683542559000657
0.0007448559464589086
0.0007536444995871138
0.0007277278722971729
0.0007411148269428008
0.0007089274947192636
0.0007294347701406969
0.0007029587608205129
0.0007298841208573307
0.0007349781945378041
0.0007675206808915188
0.0007887911819329388
0.0008293938360289285
0.000839780714940171
0.0008902396710532544
0.0008907807430585141
0.0009507370324391848
0.0009226594717133466
0.0009885803689677845
0.0009288831264036818
0.0009917774145456937
0.0009397767719342538
0.0009918472652412887
0.0009596492274976989
0.0009965289883024325
0.0009833954074319527
0.0010026159188980936
0.001007181342490467
0.0010060839573964497
0.0010339087815016438
0.0010198845152163051
0.0010496370013727812
0.0010351847003418804
0.0010231586969993425
0.0010263784665115057
0.000976027377443787
0.0010018574292149903
0.0009310444468586457
0.0009684622992347141
0.0008838268736831034
0.000924884740938856
0.0008301498789033531
0.000865214217443787
0.0007769523921867193
0.0008020311664142012
0.0007314353986377384
0.0007349252712715319
0.0006927323427771203
0.0006760003249125575
0.0006756075474109139
0.0006543539990401052
0.0006678547305693622
0.0006454414722024984
0.0006611397030690336
0.0006404555387245234
0.0006672323806416831
0.0006479105687731756
0.0006780472474924393
0.0006664320953793557
0.0006921464046153846
0.0006947827339723866
0.0007071894173701512
0.0007129996153162393
0.0007106434386482578
0.0007111786624299804
0.0007218047480631164
0.0007156059393898751
0.0007370969803392506
0.0007213969019723867
0.0007424689620355029
0.0007303650590059172
0.0007376879376725839
0.0007398868865509533
0.0007100451762735043
0.0007189187694595661
0.0006741646657777778
0.0006814817241946089
0.0006465413515213676
0.0006487129952767916
0.0006281518157869823
0.0006220279158658778
0.00060364946034714
0.0005863419450230112
0.0005801207084944116
0.000547331732086785
0.0005566553396397108
0.0005173527393162393
0.0005364083254043393
0.0005029181908980933
0.0005096328817251808
0.00047375913736226173
0.0004751489733938199
0.00043687929555818545
0.000449070077322814
0.0004198501568915188
0.0004297761681656805
0.0004148119523813281
0.0004296335681946088
0.00042528416194871795
0.0004527684030374754
0.00045657841487442476
0.0004703761337619987
0.0004819769150243261
0.00047214110868113086
0.0004866338307008547
0.0004654568692439185
0.0004819411329546351
0.0004581191920394478
0.0004737100409967127
0.0004575741742117029
0.0004737089093333334
0.0004837315517212361
0.000516644883931624
0.0005061974168021039
0.0005457428722682446
0.0005328550203944773
0.0005526798160762656
0.0005499741392899409
0.0005600016881446417
0.0005403569838737673
0.0005565586117317555
0.0005426813845285997
0.000558873321896121
0.0005647128811545036
0.0005765985265667324
0.000589351068628534